ITEM: TIMESTEP
0
ITEM: NUMBER OF ATOMS
40
ITEM: BOX BOUNDS pp pp pp
-4.0000000000000000e+01 4.0000000000000000e+01
-4.0000000000000000e+01 4.0000000000000000e+01
-4.0000000000000000e+01 4.0000000000000000e+01
ITEM: ATOMS id x y 
5 -39.9918 -0.0945931 
4 -39.8371 -0.018703 
29 -39.9836 -1.06391 
22 -39.5813 -0.593652 
23 -39.7262 -0.702955 
26 -39.8623 -0.957553 
27 -39.7782 -1.31602 
21 -39.7403 -0.590625 
28 -39.8911 -1.1726 
19 -39.9166 -0.550255 
20 -39.71 -0.471672 
24 -39.5233 -0.870043 
7 39.8341 -0.0631806 
10 39.4613 -0.0407972 
9 39.5229 -0.050183 
12 39.4855 -0.340583 
30 39.8491 -1.17696 
31 39.7981 -1.36324 
38 39.9072 -0.76582 
39 39.9266 -0.758566 
36 39.7002 -1.06329 
37 39.8323 -0.913075 
40 39.9929 -0.688806 
34 39.8966 -1.21955 
32 39.8688 -1.27764 
35 39.7905 -1.13231 
33 39.9408 -1.17272 
6 39.7526 -0.0314465 
14 39.6335 -0.40593 
16 39.5997 -0.404977 
15 39.7295 -0.332112 
11 39.436 -0.105587 
13 39.5463 -0.306222 
25 39.9751 -0.922632 
17 39.7231 -0.34441 
18 39.8228 -0.37748 
2 -39.8892 0.106136 
3 -39.8993 0.0270724 
1 -40 0 
8 39.6179 0.139059 
ITEM: TIMESTEP
10000
ITEM: NUMBER OF ATOMS
40
ITEM: BOX BOUNDS pp pp pp
-4.0000000000000000e+01 4.0000000000000000e+01
-4.0000000000000000e+01 4.0000000000000000e+01
-4.0000000000000000e+01 4.0000000000000000e+01
ITEM: ATOMS id x y 
2 39.9517 -0.029119 
22 40.0691 0.631956 
19 39.9631 0.94418 
6 40.2893 0.379262 
5 -39.7291 0.355154 
4 40.2198 0.359338 
16 40.2103 0.679718 
12 40.2019 0.453129 
13 40.162 0.583387 
11 -39.6876 0.461427 
29 -39.2597 0.37269 
39 -38.7666 -0.0389273 
40 -38.8457 -0.319805 
17 40.1148 0.706378 
23 -39.7727 0.433145 
24 -39.7357 0.448412 
25 -39.6321 0.772729 
18 40.0919 0.841246 
38 -38.8163 0.146382 
36 -38.783 0.245727 
37 -38.5942 0.145496 
34 -39.0109 0.464134 
35 -38.9479 0.384445 
26 -39.5077 0.709247 
27 -39.5042 0.741358 
28 -39.5668 0.603847 
33 -39.0065 0.527621 
31 -39.1197 0.659821 
32 -39.0207 0.518945 
30 -39.028 0.552362 
9 40.2123 0.200996 
10 -39.6779 0.33108 
14 40.2188 0.687302 
7 -39.7763 0.167425 
8 -39.8063 0.20299 
1 -40 0 
21 39.975 0.601626 
20 39.787 0.822998 
3 40.1466 -0.00962719 
15 40.2703 0.698409 
ITEM: TIMESTEP
20000
ITEM: NUMBER OF ATOMS
40
ITEM: BOX BOUNDS pp pp pp
-4.0000000000000000e+01 4.0000000000000000e+01
-4.0000000000000000e+01 4.0000000000000000e+01
-4.0000000000000000e+01 4.0000000000000000e+01
ITEM: ATOMS id x y 
38 -39.5124 -0.0835283 
37 -39.5229 -0.144372 
39 -39.7899 -0.192751 
40 -39.7826 -0.320622 
32 -38.9727 -0.405649 
26 -39.159 -0.00719749 
27 -39.024 -0.0539816 
29 -39.1387 -0.143449 
31 -39.0811 -0.189106 
30 -39.1983 -0.342733 
23 -39.3675 -0.246987 
25 -39.1597 0.0165927 
24 -39.1512 -0.0802443 
5 -39.9242 0.305298 
34 -39.258 -0.31593 
33 -39.136 -0.209431 
35 -39.2322 -0.335512 
28 -39.1726 0.00686189 
36 -39.394 -0.140671 
10 -39.7169 0.456985 
22 -39.4785 -0.161134 
21 -39.5114 -0.0161499 
15 -39.8623 0.34831 
8 40.003 0.254772 
9 40.1518 0.419578 
20 -39.3954 0.145383 
12 -39.3432 0.377781 
13 -39.3341 0.249537 
11 -39.5075 0.426826 
3 -39.8233 -0.0444304 
6 40.0487 0.17725 
7 39.9649 0.226583 
17 -39.6848 0.254485 
18 -39.3604 0.42337 
16 -39.6121 0.0548206 
14 -39.5447 0.194903 
19 -39.3333 0.455313 
2 -39.9738 0.00626729 
1 -40 0 
4 -39.9362 0.111293 
ITEM: TIMESTEP
30000
ITEM: NUMBER OF ATOMS
40
ITEM: BOX BOUNDS pp pp pp
-4.0000000000000000e+01 4.0000000000000000e+01
-4.0000000000000000e+01 4.0000000000000000e+01
-4.0000000000000000e+01 4.0000000000000000e+01
ITEM: ATOMS id x y 
29 39.4365 1.24239 
30 39.3245 1.26555 
31 39.0593 1.22768 
26 38.8635 1.13697 
27 39.1322 1.30595 
28 39.2485 1.32087 
32 39.0948 1.22043 
23 38.8896 1.21968 
25 38.7518 1.15487 
34 38.9052 1.26355 
33 39.0164 1.27595 
37 38.7303 1.5875 
38 38.8043 1.66536 
35 38.9605 1.3391 
36 39.0409 1.5708 
39 38.6988 1.53672 
40 38.7908 1.70954 
16 39.2262 0.487968 
14 39.4656 0.198912 
15 39.2515 0.270878 
5 39.8868 0.406423 
13 39.4339 0.174127 
12 39.3635 0.171213 
11 39.8309 0.278018 
18 39.1236 0.700113 
17 39.0213 0.537488 
19 39.2011 0.886054 
22 39.0689 0.984985 
21 39.1169 0.931059 
20 39.2038 0.879357 
24 38.8244 1.20723 
2 -40.2673 0.288814 
4 39.6865 0.415339 
1 -40 0 
6 39.8203 0.42673 
8 39.9104 0.331934 
9 39.8915 0.213937 
7 39.7286 0.349703 
10 39.8751 0.25087 
3 -40.2774 0.461806 
ITEM: TIMESTEP
40000
ITEM: NUMBER OF ATOMS
40
ITEM: BOX BOUNDS pp pp pp
-4.0000000000000000e+01 4.0000000000000000e+01
-4.0000000000000000e+01 4.0000000000000000e+01
-4.0000000000000000e+01 4.0000000000000000e+01
ITEM: ATOMS id x y 
8 -39.692 0.354562 
6 -39.984 0.534012 
5 40.2223 0.24926 
4 -39.9299 0.0977016 
2 -39.8052 0.187663 
3 -39.7865 0.128359 
14 -39.4564 0.558008 
13 -39.5267 0.69509 
12 -39.5203 0.848479 
15 -39.3913 0.560055 
18 -39.7258 0.508692 
17 -39.5774 0.52535 
19 -39.8144 0.408529 
20 -39.7156 0.20994 
23 -39.3283 -0.349122 
22 -39.3929 -0.150642 
24 -39.4446 -0.491147 
21 -39.5004 0.0770851 
25 -39.5603 -0.551136 
32 -39.099 -0.489188 
33 -39.099 -0.654975 
29 -39.1598 -0.424336 
30 -38.9427 -0.393087 
31 -39.0547 -0.488504 
26 -39.5344 -0.641483 
27 -39.4175 -0.664702 
28 -39.2367 -0.739712 
10 -39.6495 0.605746 
1 -40 0 
11 -39.5054 0.774167 
9 -39.6575 0.42967 
7 -39.8446 0.543192 
16 -39.4725 0.540934 
38 -39.6455 -0.459453 
39 -39.5576 -0.713684 
40 -39.641 -0.706801 
34 -39.2968 -0.578959 
37 -39.5903 -0.536293 
36 -39.4676 -0.604196 
35 -39.3195 -0.513605 
ITEM: TIMESTEP
50000
ITEM: NUMBER OF ATOMS
40
ITEM: BOX BOUNDS pp pp pp
-4.0000000000000000e+01 4.0000000000000000e+01
-4.0000000000000000e+01 4.0000000000000000e+01
-4.0000000000000000e+01 4.0000000000000000e+01
ITEM: ATOMS id x y 
18 39.5573 0.396665 
12 39.7727 -0.201882 
17 39.5084 0.443442 
16 39.415 0.220338 
10 39.5198 -0.353607 
11 39.7605 -0.42498 
7 39.8608 -0.0627454 
8 39.8245 -0.258797 
9 39.5608 -0.366013 
6 39.9374 0.17172 
4 40.2308 0.264775 
35 39.4016 0.756845 
29 39.8079 0.987012 
28 39.6483 1.0064 
33 39.4481 1.04984 
38 39.6881 0.29295 
34 39.4576 0.687631 
36 39.2947 0.693093 
13 39.6686 -0.167674 
20 39.7334 0.374224 
32 39.6188 0.974938 
19 39.644 0.470633 
25 39.5855 0.854871 
30 39.6109 1.03907 
31 39.639 1.09979 
26 39.4955 0.889711 
37 39.4117 0.456703 
39 39.9368 0.502246 
14 39.5957 -0.137607 
15 39.5847 -0.0285164 
23 -40.4339 0.844212 
22 -40.3657 0.608388 
21 39.817 0.522023 
24 -40.4433 0.83264 
27 39.4398 1.06592 
2 40.1232 0.0974522 
3 40.1629 0.0814822 
40 39.8056 0.707308 
5 40.0493 0.3549 
1 -40 0 
ITEM: TIMESTEP
60000
ITEM: NUMBER OF ATOMS
40
ITEM: BOX BOUNDS pp pp pp
-4.0000000000000000e+01 4.0000000000000000e+01
-4.0000000000000000e+01 4.0000000000000000e+01
-4.0000000000000000e+01 4.0000000000000000e+01
ITEM: ATOMS id x y 
2 40.0222 0.0631862 
35 -38.0495 0.702141 
36 -37.9881 0.713734 
37 -37.7726 0.590489 
23 -38.9126 0.0874365 
20 -38.8818 -0.0751727 
29 -38.9818 0.0292911 
25 -38.971 -0.126594 
22 -39.0361 0.0858068 
24 -38.9515 0.169593 
18 -38.6476 -0.0137228 
28 -38.9215 0.160353 
19 -38.8777 -0.127423 
26 -39.0767 0.164957 
27 -39.0429 0.114338 
21 -38.9216 0.181782 
16 -38.9375 0.113379 
17 -38.7466 -0.04156 
1 -40 0 
12 -39.4683 0.445378 
11 -39.3155 0.305131 
13 -39.3113 0.167919 
14 -39.087 -0.101119 
15 -38.9541 -0.0866238 
6 40.1753 0.480021 
32 -38.4777 0.263121 
5 40.3352 0.296477 
30 -38.5165 0.264384 
31 -38.4394 0.310771 
10 -39.4013 0.41514 
8 -39.7863 0.323218 
9 -39.5842 0.450978 
4 40.3243 0.202177 
7 40.042 0.386831 
39 -37.9981 0.849214 
33 -38.2881 0.537314 
34 -38.2764 0.621902 
38 -37.9715 0.758661 
40 -37.9293 0.698894 
3 40.1948 0.0991933 
ITEM: TIMESTEP
70000
ITEM: NUMBER OF ATOMS
40
ITEM: BOX BOUNDS pp pp pp
-4.0000000000000000e+01 4.0000000000000000e+01
-4.0000000000000000e+01 4.0000000000000000e+01
-4.0000000000000000e+01 4.0000000000000000e+01
ITEM: ATOMS id x y 
24 -39.9667 1.04794 
29 -39.7132 1.27731 
28 -39.8919 1.16736 
32 -39.6342 1.50264 
30 -39.6943 1.38713 
31 -39.6593 1.51386 
26 40.0139 0.880604 
27 40.1802 0.882439 
21 39.524 1.21525 
25 39.9633 0.762139 
34 -39.5553 1.81559 
33 -39.6056 1.64891 
7 39.7504 0.363136 
5 39.6947 0.271438 
10 39.4675 0.262256 
9 39.5101 0.247798 
8 39.7577 0.335861 
12 39.405 0.734785 
11 39.4314 0.471258 
14 39.5992 0.956608 
6 39.5973 0.343626 
13 39.5127 0.923861 
4 39.7897 0.103891 
3 39.6857 -0.0337878 
16 39.7776 1.33955 
15 39.6286 1.13947 
18 39.6695 1.24 
17 39.6364 1.31007 
23 39.8682 1.29247 
20 39.5658 1.36067 
22 39.5886 1.28003 
19 39.5195 1.37502 
35 -39.604 1.76315 
36 -39.6116 1.91461 
37 -39.6237 1.88651 
39 -39.4349 1.89003 
40 -39.4009 1.99991 
38 -39.5564 1.79433 
2 40.1469 -0.101558 
1 -40 0 
ITEM: TIMESTEP
80000
ITEM: NUMBER OF ATOMS
40
ITEM: BOX BOUNDS pp pp pp
-4.0000000000000000e+01 4.0000000000000000e+01
-4.0000000000000000e+01 4.0000000000000000e+01
-4.0000000000000000e+01 4.0000000000000000e+01
ITEM: ATOMS id x y 
34 -38.5949 -0.0947117 
36 -38.4319 -0.215574 
16 -39.2394 0.354714 
17 -39.3085 0.0612817 
23 -39.2675 -0.225273 
22 -39.2919 -0.100286 
18 -39.1439 0.0273209 
20 -39.1956 -0.00493432 
19 -39.2351 -0.15513 
29 -38.7705 0.0570375 
28 -38.9475 -0.20674 
30 -38.5743 -0.181702 
31 -38.696 -0.106738 
27 -39.0148 -0.132042 
24 -39.1385 -0.285291 
4 -39.6989 0.233154 
7 -39.5491 0.424352 
9 -39.5299 0.415579 
8 -39.6516 0.274156 
6 -39.4621 0.240312 
32 -38.6328 -0.208285 
33 -38.5007 -0.0728453 
35 -38.5659 -0.158853 
37 -38.6169 -0.351815 
39 -38.4218 -0.377652 
38 -38.5808 -0.375938 
40 -38.3406 -0.251595 
12 -39.3952 0.419925 
14 -39.3043 0.480654 
13 -39.4636 0.548889 
15 -39.3321 0.501783 
11 -39.4877 0.703997 
10 -39.4911 0.719452 
2 -39.9005 0.0790129 
21 -39.2908 0.0721791 
26 -38.9766 -0.182007 
25 -39.0109 -0.273998 
5 -39.6129 0.206437 
1 -40 0 
3 -39.6319 -0.0169161 
ITEM: TIMESTEP
90000
ITEM: NUMBER OF ATOMS
40
ITEM: BOX BOUNDS pp pp pp
-4.0000000000000000e+01 4.0000000000000000e+01
-4.0000000000000000e+01 4.0000000000000000e+01
-4.0000000000000000e+01 4.0000000000000000e+01
ITEM: ATOMS id x y 
19 -39.1912 0.651223 
16 -39.0315 0.483632 
17 -39.095 0.697009 
18 -39.0957 0.639199 
2 -39.7956 -0.0465861 
3 -39.6095 0.23233 
25 -39.3021 0.37113 
29 -39.2445 0.20062 
31 -39.0276 0.412396 
33 -39.2307 0.29509 
23 -39.5048 0.709662 
22 -39.6342 0.554663 
24 -39.3098 0.546325 
21 -39.4854 0.698306 
20 -39.2992 0.831282 
32 -39.1088 0.288643 
27 -39.2698 0.225773 
26 -39.2702 0.292825 
28 -39.3052 0.240298 
30 -39.1365 0.413324 
12 -39.0122 0.582026 
15 -39.1247 0.524786 
14 -38.9998 0.449649 
13 -38.9507 0.412773 
11 -38.9046 0.568593 
10 -39.098 0.500839 
7 -39.5151 0.520693 
6 -39.5277 0.723612 
4 -39.4913 0.399833 
8 -39.3988 0.451445 
9 -39.1749 0.542083 
1 -40 0 
5 -39.5112 0.522031 
38 -39.4526 -0.0981678 
40 -39.1851 0.17917 
34 -39.211 0.283009 
39 -39.2726 0.0154139 
37 -39.4577 -0.227517 
35 -39.3301 0.000865445 
36 -39.477 -0.127226 
ITEM: TIMESTEP
100000
ITEM: NUMBER OF ATOMS
40
ITEM: BOX BOUNDS pp pp pp
-4.0000000000000000e+01 4.0000000000000000e+01
-4.0000000000000000e+01 4.0000000000000000e+01
-4.0000000000000000e+01 4.0000000000000000e+01
ITEM: ATOMS id x y 
4 39.4455 -0.153802 
8 39.6798 -0.386721 
2 39.8356 0.0559784 
25 -39.4494 -0.888371 
29 -39.8623 -0.729178 
33 -39.6414 -0.427185 
23 -39.4162 -0.592193 
27 -39.4699 -0.593241 
26 -39.4819 -0.769859 
30 -39.8528 -0.771563 
31 -39.5188 -0.724852 
32 -39.7123 -0.508562 
3 39.7085 -0.0319344 
37 -38.9039 -0.40428 
36 -38.8937 -0.562773 
17 -39.9289 -0.55613 
18 -39.7183 -0.43784 
28 -39.7253 -0.398174 
34 -39.5563 -0.528892 
35 -39.0933 -0.533816 
19 -39.554 -0.44873 
1 -40 0 
39 -39.0111 -0.171979 
22 -39.1649 -0.345342 
14 -39.8736 -0.213016 
24 -39.5442 -0.588789 
21 -39.1491 -0.436719 
7 39.4044 -0.480786 
6 39.2713 -0.322939 
16 -40.0024 -0.540146 
15 -39.9383 -0.40244 
38 -38.8378 -0.178745 
13 -39.8017 -0.163513 
40 -38.9366 0.0551934 
12 40.0163 -0.188837 
11 40.0103 -0.26108 
10 39.8448 -0.424599 
9 39.7945 -0.42762 
5 39.475 -0.325078 
20 -39.1657 -0.381076 
ITEM: TIMESTEP
110000
ITEM: NUMBER OF ATOMS
40
ITEM: BOX BOUNDS pp pp pp
-4.0000000000000000e+01 4.0000000000000000e+01
-4.0000000000000000e+01 4.0000000000000000e+01
-4.0000000000000000e+01 4.0000000000000000e+01
ITEM: ATOMS id x y 
6 39.6837 0.390434 
12 39.884 0.488783 
8 39.3315 0.204727 
11 39.6858 0.370708 
9 39.365 0.199999 
2 39.7628 -0.0371287 
7 39.4889 0.314508 
10 39.5121 0.154006 
4 39.7433 -0.071719 
5 39.5908 0.103644 
3 39.7451 -0.12464 
36 -39.5778 1.49983 
35 -39.6675 1.38444 
38 -39.5892 1.4865 
23 -39.6735 0.751205 
18 -40.1046 0.642195 
19 -39.8239 0.514055 
24 -39.8586 0.827733 
32 -39.3647 1.14914 
37 -39.5107 1.57832 
34 -39.6674 1.38391 
39 -39.4606 1.34272 
40 -39.6552 1.5655 
33 -39.5403 1.27349 
31 -39.6459 1.0946 
1 -40 0 
17 -40.0457 0.663572 
22 -39.5162 0.548994 
14 39.9726 0.5454 
21 -39.7582 0.536459 
16 -40.077 0.440836 
15 -39.9473 0.390669 
13 40.0385 0.535697 
20 -39.641 0.621643 
25 -39.7577 0.718199 
26 -39.785 0.687621 
29 -39.6825 0.823668 
27 40.2778 0.832816 
28 -39.5316 0.638724 
30 -39.7831 1.00295 
ITEM: TIMESTEP
120000
ITEM: NUMBER OF ATOMS
40
ITEM: BOX BOUNDS pp pp pp
-4.0000000000000000e+01 4.0000000000000000e+01
-4.0000000000000000e+01 4.0000000000000000e+01
-4.0000000000000000e+01 4.0000000000000000e+01
ITEM: ATOMS id x y 
29 -38.7157 0.370901 
19 -39.4801 0.105695 
21 -39.2313 0.0892116 
16 -39.4085 0.24465 
23 -38.8498 0.0600258 
26 -38.6976 0.325069 
4 -39.8702 0.267356 
12 -39.4229 0.120722 
14 -39.3704 0.1633 
15 -39.2184 0.371449 
6 -39.9106 0.442418 
37 -38.5251 0.404461 
2 -39.8786 0.062409 
28 -38.767 0.423386 
33 -38.7256 0.142662 
31 -38.7809 0.616682 
30 -38.6858 0.467556 
18 -39.3457 0.129027 
20 -39.3364 0.0943668 
17 -39.5642 0.2079 
24 -38.9293 0.192701 
22 -38.9476 0.125023 
25 -38.8183 0.221145 
27 -38.5765 0.310606 
32 -38.644 0.57904 
36 -38.3287 0.42152 
34 -38.5442 0.353856 
10 -39.494 0.301645 
9 -39.5175 0.263169 
8 -39.6159 0.219849 
7 -39.6618 0.213401 
3 -39.8058 -0.0195765 
5 -39.7274 0.519826 
13 -39.627 0.26237 
11 -39.4018 0.152365 
1 -40 0 
35 -38.3823 0.447335 
38 -38.4554 0.50173 
39 -38.4476 0.497293 
40 -38.3251 0.368067 
ITEM: TIMESTEP
130000
ITEM: NUMBER OF ATOMS
40
ITEM: BOX BOUNDS pp pp pp
-4.0000000000000000e+01 4.0000000000000000e+01
-4.0000000000000000e+01 4.0000000000000000e+01
-4.0000000000000000e+01 4.0000000000000000e+01
ITEM: ATOMS id x y 
13 -38.545 -0.779341 
12 -38.4972 -0.505387 
11 -38.5762 -0.578239 
9 -38.9713 -0.596926 
10 -38.7161 -0.636112 
8 -39.1846 -0.577812 
5 -39.7342 -0.482773 
2 -39.8032 -0.0315873 
7 -39.3609 -0.343308 
6 -39.6129 -0.364899 
3 -39.7942 -0.136557 
4 -39.9054 -0.401589 
29 -38.0316 -0.946726 
19 -38.2322 -0.586236 
14 -38.3396 -0.725947 
18 -38.4079 -0.709026 
20 -38.2778 -0.791156 
17 -38.4451 -0.851772 
28 -38.0762 -0.982903 
30 -38.1271 -0.978497 
21 -38.2068 -0.693863 
15 -38.5844 -0.713881 
16 -38.5389 -0.91062 
25 -38.1591 -0.860996 
24 -38.1649 -0.765622 
23 -38.3077 -0.7226 
22 -38.2785 -0.735024 
26 -38.1978 -1.04154 
27 -38.0475 -1.06492 
34 -38.2761 -0.888847 
31 -38.0334 -1.01641 
32 -38.2803 -1.21968 
33 -38.1108 -1.11537 
1 -40 0 
36 -37.6979 -0.6789 
35 -37.9229 -0.879069 
37 -37.7163 -0.927717 
38 -37.7801 -1.05448 
39 -37.5595 -1.01594 
40 -37.4823 -0.971909 
ITEM: TIMESTEP
140000
ITEM: NUMBER OF ATOMS
40
ITEM: BOX BOUNDS pp pp pp
-4.0000000000000000e+01 4.0000000000000000e+01
-4.0000000000000000e+01 4.0000000000000000e+01
-4.0000000000000000e+01 4.0000000000000000e+01
ITEM: ATOMS id x y 
5 -39.621 0.203152 
4 -39.9666 0.0226991 
25 -39.3783 0.719224 
23 -39.5975 0.816153 
26 -39.4624 0.411728 
38 -38.1957 0.519322 
39 -38.0579 0.760593 
40 -38.044 0.663178 
18 -39.6475 0.824352 
10 -39.6321 0.46744 
8 -39.4796 0.452212 
7 -39.4302 0.540237 
6 -39.4502 0.296676 
17 -39.8547 0.792285 
15 -39.4923 0.766934 
16 -39.6438 0.726753 
12 -39.6777 0.756855 
11 -39.7027 0.63065 
14 -39.5106 0.883886 
13 -39.4356 0.986081 
9 -39.4883 0.504663 
3 -40.0065 0.10777 
21 -39.579 0.901576 
22 -39.6309 0.918329 
19 -39.5579 0.853318 
20 -39.437 0.848355 
2 -40.0837 -0.0133386 
27 -39.3748 0.436716 
29 -39.6191 0.191201 
28 -39.5157 0.14005 
30 -39.3316 -0.0299491 
31 -39.1171 -0.213113 
32 -39.0108 -0.0293527 
35 -38.4948 0.237236 
34 -38.7723 0.192232 
33 -38.8715 0.142796 
36 -38.3107 0.364326 
37 -38.4501 0.371369 
24 -39.3945 0.816967 
1 -40 0 
ITEM: TIMESTEP
150000
ITEM: NUMBER OF ATOMS
40
ITEM: BOX BOUNDS pp pp pp
-4.0000000000000000e+01 4.0000000000000000e+01
-4.0000000000000000e+01 4.0000000000000000e+01
-4.0000000000000000e+01 4.0000000000000000e+01
ITEM: ATOMS id x y 
14 -38.8934 0.657942 
15 -38.8715 0.718043 
16 -38.4447 0.543747 
9 -38.943 0.645991 
10 -38.6573 0.60279 
11 -38.6517 0.632219 
12 -38.6882 0.635606 
13 -38.8734 0.570005 
7 -39.1775 0.35686 
17 -38.2778 0.251843 
2 39.8449 0.0642053 
8 -38.9225 0.524959 
27 -37.8325 0.697767 
28 -37.8125 0.679867 
31 -38.0913 0.582412 
4 -39.656 0.349188 
5 -39.4134 0.470348 
3 -39.9846 0.187494 
25 -37.7905 0.654392 
26 -37.7377 0.871184 
21 -37.8829 0.542409 
22 -37.8563 0.645906 
20 -37.9162 0.350039 
1 -40 0 
18 -38.2406 0.323109 
19 -38.1231 0.39292 
23 -37.6103 0.666225 
24 -37.69 0.721558 
29 -37.8221 0.609304 
30 -37.9497 0.590842 
32 -38.1588 0.521398 
33 -38.193 0.5475 
34 -38.0513 0.81504 
35 -37.8592 1.1104 
36 -37.7819 1.1344 
38 -37.6047 1.12265 
37 -37.7439 1.08908 
40 -37.4426 1.17291 
39 -37.5876 1.02857 
6 -39.3893 0.559983 
ITEM: TIMESTEP
160000
ITEM: NUMBER OF ATOMS
40
ITEM: BOX BOUNDS pp pp pp
-4.0000000000000000e+01 4.0000000000000000e+01
-4.0000000000000000e+01 4.0000000000000000e+01
-4.0000000000000000e+01 4.0000000000000000e+01
ITEM: ATOMS id x y 
4 -39.5332 -0.529841 
2 40.2564 -0.0238111 
35 -36.0948 -1.29974 
36 -36.0547 -1.23918 
21 -38.3447 -0.490418 
20 -38.5167 -0.421727 
18 -38.6237 -0.503185 
19 -38.5872 -0.410339 
13 -39.0012 -0.524594 
12 -39.161 -0.492332 
22 -38.0051 -0.594077 
15 -38.6459 -0.236994 
14 -38.7262 -0.358224 
16 -38.7104 -0.414223 
17 -38.5817 -0.584819 
11 -39.2068 -0.492566 
23 -37.841 -0.706631 
27 -37.0072 -0.626927 
26 -37.2109 -0.549796 
25 -37.5384 -0.711701 
24 -37.5691 -0.71442 
28 -36.8785 -0.773178 
38 -35.7463 -1.12976 
40 -35.7566 -1.07844 
39 -35.5307 -1.0993 
37 -35.9423 -1.24368 
29 -36.735 -0.729152 
30 -36.8124 -0.885674 
31 -36.6597 -0.903659 
32 -36.5759 -0.935022 
34 -36.2604 -1.06616 
33 -36.4617 -0.888576 
3 -39.507 -0.250588 
8 -39.2663 -0.609166 
7 -39.4273 -0.820511 
6 -39.6082 -0.527757 
5 -39.6357 -0.518417 
9 -39.1903 -0.800893 
10 -39.1215 -0.577835 
1 -40 0 
ITEM: TIMESTEP
170000
ITEM: NUMBER OF ATOMS
40
ITEM: BOX BOUNDS pp pp pp
-4.0000000000000000e+01 4.0000000000000000e+01
-4.0000000000000000e+01 4.0000000000000000e+01
-4.0000000000000000e+01 4.0000000000000000e+01
ITEM: ATOMS id x y 
22 -38.177 -1.00344 
2 -39.952 -0.115444 
7 -39.7092 -0.422167 
25 -37.7574 -0.694621 
20 -38.5703 -0.975424 
13 -39.107 -0.650851 
19 -38.5132 -1.09437 
16 -38.8609 -0.939995 
18 -38.622 -1.16857 
15 -39.1793 -0.978062 
17 -38.7344 -1.06733 
21 -38.4268 -0.989173 
23 -37.9901 -0.920458 
24 -37.8162 -0.811641 
1 -40 0 
26 -37.5707 -0.721841 
36 -37.5561 -0.572432 
27 -37.6079 -0.817051 
28 -37.7028 -0.942633 
38 -37.1963 -0.603994 
37 -37.2694 -0.556378 
29 -37.7076 -0.618532 
31 -37.704 -0.548307 
32 -37.6275 -0.697675 
34 -37.7175 -0.78628 
33 -37.7778 -0.732538 
35 -37.6794 -0.760842 
40 -36.8112 -0.519983 
39 -36.9511 -0.628117 
30 -37.8049 -0.742899 
14 -39.2561 -0.820863 
6 -39.5845 -0.430784 
8 -39.7376 -0.522489 
9 -39.721 -0.599578 
12 -39.1411 -0.464961 
11 -39.1691 -0.444541 
10 -39.3563 -0.340048 
5 -39.7902 -0.24059 
4 -39.7436 -0.052772 
3 -39.8936 -0.0824449 
ITEM: TIMESTEP
180000
ITEM: NUMBER OF ATOMS
40
ITEM: BOX BOUNDS pp pp pp
-4.0000000000000000e+01 4.0000000000000000e+01
-4.0000000000000000e+01 4.0000000000000000e+01
-4.0000000000000000e+01 4.0000000000000000e+01
ITEM: ATOMS id x y 
8 -39.1396 0.601069 
11 -38.8081 0.887459 
12 -38.4849 0.548279 
10 -38.882 0.861614 
3 -39.6481 0.097247 
7 -39.0566 0.720931 
5 -39.5699 0.489476 
4 -39.7101 0.279188 
18 -37.8121 0.933941 
13 -38.2725 0.721484 
17 -38.1207 0.946765 
14 -38.1704 0.759393 
22 -37.6731 0.830904 
28 -37.3309 1.7955 
32 -37.1623 1.7415 
27 -37.5272 1.57436 
29 -37.3439 1.82069 
33 -36.9898 1.68251 
19 -37.8096 0.758826 
15 -38.3106 0.658227 
16 -38.3082 0.773024 
20 -37.7309 0.582384 
21 -37.5912 0.709492 
23 -37.3751 0.901887 
26 -37.4931 1.53793 
25 -37.4685 1.45837 
24 -37.3793 1.03719 
31 -37.1544 1.76533 
30 -37.3123 1.6089 
34 -37.0785 1.73 
36 -36.9252 1.71694 
35 -36.8628 1.68098 
38 -36.7327 1.97733 
37 -36.8741 1.80176 
40 -36.3702 2.0817 
39 -36.7304 1.99999 
2 -39.8311 -0.0500647 
9 -39.0847 0.910923 
6 -39.5057 0.717043 
1 -40 0 
ITEM: TIMESTEP
190000
ITEM: NUMBER OF ATOMS
40
ITEM: BOX BOUNDS pp pp pp
-4.0000000000000000e+01 4.0000000000000000e+01
-4.0000000000000000e+01 4.0000000000000000e+01
-4.0000000000000000e+01 4.0000000000000000e+01
ITEM: ATOMS id x y 
7 -39.346 0.514259 
30 -38.7791 0.284016 
36 -38.4454 0.248181 
37 -38.3689 0.264906 
38 -38.3033 0.431905 
39 -38.069 0.401783 
2 -40.0808 -0.110237 
4 40.3519 0.101716 
5 40.5047 0.228823 
8 -39.2146 0.639969 
14 -39.4245 0.73376 
15 -39.5488 0.797914 
6 -39.4252 0.421056 
21 -38.915 0.787164 
17 -39.304 0.780664 
16 -39.4752 0.584726 
20 -38.9953 0.683223 
19 -39.1756 0.654515 
12 -39.3483 0.97063 
13 -39.325 0.81063 
10 -39.3754 0.85264 
9 -39.2122 0.706031 
11 -39.3909 1.0152 
23 -39.1509 0.711796 
25 -39.237 0.225314 
18 -39.1407 0.759544 
1 -40 0 
22 -39.024 0.557563 
27 -39.1693 0.188683 
24 -39.2826 0.401858 
28 -39.0369 0.19581 
26 -39.242 0.358871 
29 -38.8793 0.245129 
32 -38.8305 0.201002 
33 -38.6481 0.298927 
31 -38.7288 0.256104 
34 -38.6664 0.321911 
35 -38.7312 0.273001 
40 -37.7914 0.359543 
3 40.0703 0.06443 
ITEM: TIMESTEP
200000
ITEM: NUMBER OF ATOMS
40
ITEM: BOX BOUNDS pp pp pp
-4.0000000000000000e+01 4.0000000000000000e+01
-4.0000000000000000e+01 4.0000000000000000e+01
-4.0000000000000000e+01 4.0000000000000000e+01
ITEM: ATOMS id x y 
17 -39.032 0.0561709 
18 -39.0274 -0.15977 
16 -39.0475 -0.0336401 
15 -39.3111 0.0800021 
2 -39.8112 -0.0475804 
20 -38.5149 -0.566779 
19 -38.7084 -0.477017 
9 -39.4113 0.574729 
13 -39.5094 0.340692 
14 -39.3973 0.15052 
12 -39.2856 0.596978 
11 -39.3234 0.633198 
6 -39.6112 0.259032 
7 -39.4731 0.380114 
8 -39.3639 0.52306 
10 -39.3944 0.551718 
4 -39.5846 0.101778 
5 -39.5621 0.202775 
1 -40 0 
3 -39.6072 -0.0288131 
23 -38.5475 -0.308905 
24 -38.4404 -0.219697 
26 -38.4373 -0.349294 
25 -38.3689 -0.171967 
27 -38.6327 -0.297897 
28 -38.4917 -0.346612 
29 -38.4005 -0.486027 
31 -38.4446 -0.557798 
30 -38.4889 -0.648534 
33 -38.3732 -0.538006 
34 -38.227 -0.55692 
32 -38.3238 -0.535668 
21 -38.5653 -0.312668 
22 -38.5791 -0.35452 
35 -38.3719 -0.555273 
37 -38.2974 -0.449582 
38 -38.2813 -0.689206 
39 -38.1341 -0.647922 
36 -38.1508 -0.365129 
40 -37.8268 -0.977093 
ITEM: TIMESTEP
210000
ITEM: NUMBER OF ATOMS
40
ITEM: BOX BOUNDS pp pp pp
-4.0000000000000000e+01 4.0000000000000000e+01
-4.0000000000000000e+01 4.0000000000000000e+01
-4.0000000000000000e+01 4.0000000000000000e+01
ITEM: ATOMS id x y 
23 -38.2852 -0.629499 
18 -38.4387 -0.681187 
16 -38.5222 -0.682369 
15 -38.4633 -0.744039 
14 -38.4009 -0.89738 
19 -38.4886 -0.87929 
20 -38.6141 -1.01871 
21 -38.5057 -0.90986 
22 -38.4017 -0.730869 
17 -38.4394 -0.763917 
11 -38.7016 -0.729239 
6 -39.3643 -0.539408 
7 -39.2811 -0.630101 
8 -39.1303 -0.592834 
9 -38.8007 -0.648622 
10 -38.8734 -0.673369 
4 -39.502 -0.193877 
12 -38.3358 -0.710239 
13 -38.3766 -0.763172 
24 -38.4034 -0.53845 
26 -38.3943 -0.509056 
25 -38.4749 -0.480364 
27 -38.4033 -0.375664 
28 -38.3545 -0.50784 
29 -38.2473 -0.578974 
31 -38.0981 -0.715051 
30 -38.2102 -0.734477 
32 -37.9261 -0.738239 
33 -38.0636 -0.831073 
34 -37.9321 -1.03152 
35 -37.9633 -1.14917 
38 -37.8526 -1.46087 
39 -37.688 -1.40844 
40 -37.3555 -1.4977 
37 -37.7625 -1.2636 
36 -37.6257 -1.12642 
3 -39.6634 -0.0113366 
2 -39.8522 0.0165758 
5 -39.3752 -0.520938 
1 -40 0 
ITEM: TIMESTEP
220000
ITEM: NUMBER OF ATOMS
40
ITEM: BOX BOUNDS pp pp pp
-4.0000000000000000e+01 4.0000000000000000e+01
-4.0000000000000000e+01 4.0000000000000000e+01
-4.0000000000000000e+01 4.0000000000000000e+01
ITEM: ATOMS id x y 
7 -39.4661 -0.0431198 
8 -39.3243 -0.288205 
13 -38.8897 -0.0761797 
9 -39.1976 -0.294989 
14 -38.5455 -0.0346454 
10 -39.0487 -0.195996 
11 -38.923 -0.267938 
12 -38.877 -0.38456 
4 -39.7675 -0.0858958 
15 -38.1451 -0.0591962 
23 -37.3161 0.202144 
18 -37.493 -0.309433 
16 -37.8957 -0.0812436 
19 -37.3219 -0.128554 
20 -37.3848 -0.0516098 
21 -37.329 0.105342 
22 -37.3544 -0.0060343 
17 -37.8409 -0.139346 
24 -37.1066 0.0234295 
25 -37.1642 -0.13498 
26 -37.1594 -0.301394 
33 -36.8121 0.303668 
32 -36.77 0.0845271 
31 -36.7998 0.0622341 
35 -36.6893 0.142398 
37 -36.4795 0.304829 
27 -37.1856 -0.282618 
28 -37.1631 -0.231167 
29 -36.9698 -0.207216 
30 -36.9076 -0.0621275 
40 -36.3812 0.161833 
34 -36.7396 0.23083 
39 -36.2293 0.104372 
36 -36.5696 0.281543 
38 -36.4206 0.214032 
6 -39.5777 -0.100325 
3 -39.8312 -0.25059 
2 -39.9003 -0.237179 
5 -39.762 -0.0304675 
1 -40 0 
ITEM: TIMESTEP
230000
ITEM: NUMBER OF ATOMS
40
ITEM: BOX BOUNDS pp pp pp
-4.0000000000000000e+01 4.0000000000000000e+01
-4.0000000000000000e+01 4.0000000000000000e+01
-4.0000000000000000e+01 4.0000000000000000e+01
ITEM: ATOMS id x y 
12 -39.1044 0.68442 
13 -39.1537 0.551904 
11 -39.0035 0.474327 
2 -39.887 -0.00405569 
10 -39.1481 0.700698 
6 -39.6307 0.639315 
5 -39.6218 0.118075 
4 -39.6968 0.299923 
3 -39.8401 0.138 
14 -39.0356 0.630487 
19 -39.2186 0.603487 
16 -39.1168 0.875622 
17 -39.1163 0.989667 
15 -38.9712 0.870352 
18 -39.1896 0.883266 
9 -39.1923 0.724266 
7 -39.5534 0.708542 
8 -39.3495 0.663373 
1 -40 0 
20 -39.2949 0.720306 
36 -38.5449 0.256615 
21 -39.3194 0.766271 
22 -39.2058 0.735395 
30 -38.6899 0.125909 
31 -38.5702 0.0859676 
29 -38.8492 -0.00824842 
25 -39.1605 0.514874 
26 -39.2807 0.196029 
32 -38.4431 0.281409 
28 -38.8113 0.0351183 
33 -38.5785 0.425155 
35 -38.5269 0.446566 
34 -38.5333 0.298092 
23 -39.2955 0.716931 
37 -38.4435 0.570364 
24 -39.2337 0.59511 
27 -39.0624 0.113325 
39 -38.085 0.461961 
40 -37.7311 0.422 
38 -38.1447 0.549275 
ITEM: TIMESTEP
240000
ITEM: NUMBER OF ATOMS
40
ITEM: BOX BOUNDS pp pp pp
-4.0000000000000000e+01 4.0000000000000000e+01
-4.0000000000000000e+01 4.0000000000000000e+01
-4.0000000000000000e+01 4.0000000000000000e+01
ITEM: ATOMS id x y 
6 -39.7253 -0.278837 
9 -39.4955 -0.412465 
8 -39.6438 -0.195713 
7 -39.7049 -0.0851341 
5 -39.8156 -0.565181 
3 -40.0184 -0.536112 
17 -38.5698 -0.781894 
19 -38.5422 -0.786412 
16 -39.0068 -0.67922 
18 -38.4574 -0.906541 
20 -38.2623 -0.709495 
21 -37.8732 -0.937602 
30 -37.5854 -0.456517 
23 -37.9045 -0.819707 
24 -37.9606 -0.838435 
31 -37.3316 -0.36905 
28 -37.7764 -0.442049 
27 -37.7842 -0.454857 
29 -37.5723 -0.497552 
32 -37.3752 -0.364569 
33 -37.4939 -0.257796 
25 -37.8036 -0.735692 
26 -37.8332 -0.682845 
34 -37.4516 -0.302869 
37 -37.0524 -0.671519 
38 -36.9512 -0.458835 
39 -36.8458 -0.549771 
40 -36.607 -0.548087 
36 -37.2091 -0.271966 
35 -37.3508 -0.438489 
12 -39.0898 -0.687751 
4 -40.0107 -0.569967 
2 -40.1201 -0.317608 
11 -39.1702 -0.539324 
13 -38.9588 -0.729851 
14 -38.8368 -0.660808 
15 -38.867 -0.674512 
10 -39.4667 -0.450593 
1 -40 0 
22 -37.7949 -0.874087 
ITEM: TIMESTEP
250000
ITEM: NUMBER OF ATOMS
40
ITEM: BOX BOUNDS pp pp pp
-4.0000000000000000e+01 4.0000000000000000e+01
-4.0000000000000000e+01 4.0000000000000000e+01
-4.0000000000000000e+01 4.0000000000000000e+01
ITEM: ATOMS id x y 
3 -39.8735 0.117372 
6 -39.434 0.0128332 
5 -39.6541 -0.0244695 
4 -39.8178 0.110113 
7 -39.6846 -0.168141 
10 -39.6973 -0.210789 
9 -39.5984 -0.120574 
8 -39.5682 -0.105758 
30 -36.7904 0.256094 
31 -36.91 0.216742 
32 -36.8128 0.346826 
29 -36.9049 0.1605 
33 -36.7205 0.126542 
34 -36.5307 0.351691 
2 -40.1235 0.131458 
16 -39.1093 -0.260621 
17 -38.9175 -0.363791 
18 -38.6801 -0.203839 
12 -39.55 -0.143094 
11 -39.6558 -0.155825 
13 -39.4154 -0.0130845 
14 -39.1533 -0.127817 
15 -39.1458 -0.315098 
1 -40 0 
20 -38.3249 0.103976 
28 -37.0365 0.296546 
27 -36.9657 0.399161 
26 -36.9849 0.587975 
25 -37.1514 0.613567 
19 -38.6699 0.0635012 
21 -38.1654 0.319673 
22 -37.911 0.586683 
23 -37.3385 0.72625 
24 -37.3127 0.482534 
35 -36.3958 0.312391 
36 -36.3615 0.54742 
38 -36.3687 0.778925 
39 -36.3342 0.804495 
40 -36.2122 0.778941 
37 -36.3218 0.540032 
ITEM: TIMESTEP
260000
ITEM: NUMBER OF ATOMS
40
ITEM: BOX BOUNDS pp pp pp
-4.0000000000000000e+01 4.0000000000000000e+01
-4.0000000000000000e+01 4.0000000000000000e+01
-4.0000000000000000e+01 4.0000000000000000e+01
ITEM: ATOMS id x y 
14 -38.302 -0.456575 
16 -38.1085 -0.00238364 
17 -38.1716 -0.132457 
3 -39.595 0.0660526 
9 -39.3396 0.121128 
8 -39.6645 0.529063 
2 -39.8119 -0.0683494 
18 -38.1735 -0.525679 
19 -38.2112 -0.614412 
12 -38.8594 -0.272921 
13 -38.5155 -0.249856 
15 -38.4104 -0.314463 
5 -39.3175 0.443846 
6 -39.3741 0.544818 
4 -39.4776 0.306152 
10 -39.0009 0.0318859 
11 -38.9142 -0.136677 
7 -39.5126 0.52393 
1 -40 0 
20 -38.2633 -0.491888 
22 -38.088 -0.0771255 
21 -38.0705 -0.248001 
24 -37.872 -0.243064 
23 -37.9539 -0.022773 
26 -37.7759 -0.280417 
25 -37.8485 -0.302647 
29 -37.4825 -0.59711 
27 -37.83 -0.309433 
30 -37.4452 -0.578274 
28 -37.7598 -0.603456 
35 -36.6992 -0.88851 
31 -37.485 -0.749929 
32 -37.4086 -0.885404 
33 -37.1617 -0.849788 
34 -37.0131 -0.970538 
36 -36.3753 -1.09957 
37 -36.3358 -1.15072 
39 -35.8848 -1.24039 
38 -36.2053 -1.43625 
40 -35.8108 -1.38779 
ITEM: TIMESTEP
270000
ITEM: NUMBER OF ATOMS
40
ITEM: BOX BOUNDS pp pp pp
-4.0000000000000000e+01 4.0000000000000000e+01
-4.0000000000000000e+01 4.0000000000000000e+01
-4.0000000000000000e+01 4.0000000000000000e+01
ITEM: ATOMS id x y 
8 39.9795 0.0856002 
2 -40.0503 0.154965 
10 39.7823 0.016397 
11 39.6343 -0.223911 
9 39.8186 -0.215449 
14 39.8437 0.254277 
13 39.8387 -0.0804296 
19 -39.5477 0.402303 
22 -39.5302 0.505186 
23 -39.3645 0.473512 
24 -39.3041 0.576105 